<?xml version="1.0"?>
<VTKFile type="UnstructuredGrid" version="0.1" byte_order="LittleEndian"><UnstructuredGrid><Piece NumberOfPoints="9045" NumberOfCells="8800"><Points><DataArray type="Float64" NumberOfComponents="3" format="ascii">
1.0000000000e-05 0.0000000000e+00 0.0000000000e+00
5.0995000000e-04 0.0000000000e+00 0.0000000000e+00
1.0099000000e-03 0.0000000000e+00 0.0000000000e+00
1.5098500000e-03 0.0000000000e+00 0.0000000000e+00
2.0098000000e-03 0.0000000000e+00 0.0000000000e+00
2.5097500000e-03 0.0000000000e+00 0.0000000000e+00
3.0097000000e-03 0.0000000000e+00 0.0000000000e+00
3.5096500000e-03 0.0000000000e+00 0.0000000000e+00
4.0096000000e-03 0.0000000000e+00 0.0000000000e+00
4.5095500000e-03 0.0000000000e+00 0.0000000000e+00
5.0095000000e-03 0.0000000000e+00 0.0000000000e+00
5.5094500000e-03 0.0000000000e+00 0.0000000000e+00
6.0094000000e-03 0.0000000000e+00 0.0000000000e+00
6.5093500000e-03 0.0000000000e+00 0.0000000000e+00
7.0093000000e-03 0.0000000000e+00 0.0000000000e+00
7.5092500000e-03 0.0000000000e+00 0.0000000000e+00
8.0092000000e-03 0.0000000000e+00 0.0000000000e+00
8.5091500000e-03 0.0000000000e+00 0.0000000000e+00
9.0091000000e-03 0.0000000000e+00 0.0000000000e+00
9.5090500000e-03 0.0000000000e+00 0.0000000000e+00
1.0009000000e-02 0.0000000000e+00 0.0000000000e+00
1.0508950000e-02 0.0000000000e+00 0.0000000000e+00
1.1008900000e-02 0.0000000000e+00 0.0000000000e+00
1.1508850000e-02 0.0000000000e+00 0.0000000000e+00
1.2008800000e-02 0.0000000000e+00 0.0000000000e+00
1.2508750000e-02 0.0000000000e+00 0.0000000000e+00
1.3008700000e-02 0.0000000000e+00 0.0000000000e+00
1.3508650000e-02 0.0000000000e+00 0.0000000000e+00
1.4008600000e-02 0.0000000000e+00 0.0000000000e+00
1.4508550000e-02 0.0000000000e+00 0.0000000000e+00
1.5008500000e-02 0.0000000000e+00 0.0000000000e+00
1.5508450000e-02 0.0000000000e+00 0.0000000000e+00
1.6008400000e-02 0.0000000000e+00 0.0000000000e+00
1.6508350000e-02 0.0000000000e+00 0.0000000000e+00
1.7008300000e-02 0.0000000000e+00 0.0000000000e+00
1.7508250000e-02 0.0000000000e+00 0.0000000000e+00
1.8008200000e-02 0.0000000000e+00 0.0000000000e+00
1.8508150000e-02 0.0000000000e+00 0.0000000000e+00
1.9008100000e-02 0.0000000000e+00 0.0000000000e+00
1.9508050000e-02 0.0000000000e+00 0.0000000000e+00
2.0008000000e-02 0.0000000000e+00 0.0000000000e+00
2.0507950000e-02 0.0000000000e+00 0.0000000000e+00
2.1007900000e-02 0.0000000000e+00 0.0000000000e+00
2.1507850000e-02 0.0000000000e+00 0.0000000000e+00
2.2007800000e-02 0.0000000000e+00 0.0000000000e+00
2.2507750000e-02 0.0000000000e+00 0.0000000000e+00
2.3007700000e-02 0.0000000000e+00 0.0000000000e+00
2.3507650000e-02 0.0000000000e+00 0.0000000000e+00
2.4007600000e-02 0.0000000000e+00 0.0000000000e+00
2.4507550000e-02 0.0000000000e+00 0.0000000000e+00
2.5007500000e-02 0.0000000000e+00 0.0000000000e+00
2.5507450000e-02 0.0000000000e+00 0.0000000000e+00
2.6007400000e-02 0.0000000000e+00 0.0000000000e+00
2.6507350000e-02 0.0000000000e+00 0.0000000000e+00
2.7007300000e-02 0.0000000000e+00 0.0000000000e+00
2.7507250000e-02 0.0000000000e+00 0.0000000000e+00
2.8007200000e-02 0.0000000000e+00 0.0000000000e+00
2.8507150000e-02 0.0000000000e+00 0.0000000000e+00
2.9007100000e-02 0.0000000000e+00 0.0000000000e+00
2.9507050000e-02 0.0000000000e+00 0.0000000000e+00
3.0007000000e-02 0.0000000000e+00 0.0000000000e+00
3.0506950000e-02 0.0000000000e+00 0.0000000000e+00
3.1006900000e-02 0.0000000000e+00 0.0000000000e+00
3.1506850000e-02 0.0000000000e+00 0.0000000000e+00
3.2006800000e-02 0.0000000000e+00 0.0000000000e+00
3.2506750000e-02 0.0000000000e+00 0.0000000000e+00
3.3006700000e-02 0.0000000000e+00 0.0000000000e+00
3.3506650000e-02 0.0000000000e+00 0.0000000000e+00
3.4006600000e-02 0.0000000000e+00 0.0000000000e+00
3.4506550000e-02 0.0000000000e+00 0.0000000000e+00
3.5006500000e-02 0.0000000000e+00 0.0000000000e+00
3.5506450000e-02 0.0000000000e+00 0.0000000000e+00
3.6006400000e-02 0.0000000000e+00 0.0000000000e+00
3.6506350000e-02 0.0000000000e+00 0.0000000000e+00
3.7006300000e-02 0.0000000000e+00 0.0000000000e+00
3.7506250000e-02 0.0000000000e+00 0.0000000000e+00
3.8006200000e-02 0.0000000000e+00 0.0000000000e+00
3.8506150000e-02 0.0000000000e+00 0.0000000000e+00
3.9006100000e-02 0.0000000000e+00 0.0000000000e+00
3.9506050000e-02 0.0000000000e+00 0.0000000000e+00
4.0006000000e-02 0.0000000000e+00 0.0000000000e+00
4.0505950000e-02 0.0000000000e+00 0.0000000000e+00
4.1005900000e-02 0.0000000000e+00 0.0000000000e+00
4.1505850000e-02 0.0000000000e+00 0.0000000000e+00
4.2005800000e-02 0.0000000000e+00 0.0000000000e+00
4.2505750000e-02 0.0000000000e+00 0.0000000000e+00
4.3005700000e-02 0.0000000000e+00 0.0000000000e+00
4.3505650000e-02 0.0000000000e+00 0.0000000000e+00
4.4005600000e-02 0.0000000000e+00 0.0000000000e+00
4.4505550000e-02 0.0000000000e+00 0.0000000000e+00
4.5005500000e-02 0.0000000000e+00 0.0000000000e+00
4.5505450000e-02 0.0000000000e+00 0.0000000000e+00
4.6005400000e-02 0.0000000000e+00 0.0000000000e+00
4.6505350000e-02 0.0000000000e+00 0.0000000000e+00
4.7005300000e-02 0.0000000000e+00 0.0000000000e+00
4.7505250000e-02 0.0000000000e+00 0.0000000000e+00
4.8005200000e-02 0.0000000000e+00 0.0000000000e+00
4.8505150000e-02 0.0000000000e+00 0.0000000000e+00
4.9005100000e-02 0.0000000000e+00 0.0000000000e+00
4.9505050000e-02 0.0000000000e+00 0.0000000000e+00
5.0005000000e-02 0.0000000000e+00 0.0000000000e+00
5.0504950000e-02 0.0000000000e+00 0.0000000000e+00
5.1004900000e-02 0.0000000000e+00 0.0000000000e+00
5.1504850000e-02 0.0000000000e+00 0.0000000000e+00
5.2004800000e-02 0.0000000000e+00 0.0000000000e+00
5.2504750000e-02 0.0000000000e+00 0.0000000000e+00
5.3004700000e-02 0.0000000000e+00 0.0000000000e+00
5.3504650000e-02 0.0000000000e+00 0.0000000000e+00
5.4004600000e-02 0.0000000000e+00 0.0000000000e+00
5.4504550000e-02 0.0000000000e+00 0.0000000000e+00
5.5004500000e-02 0.0000000000e+00 0.0000000000e+00
5.5504450000e-02 0.0000000000e+00 0.0000000000e+00
5.6004400000e-02 0.0000000000e+00 0.0000000000e+00
5.6504350000e-02 0.0000000000e+00 0.0000000000e+00
5.7004300000e-02 0.0000000000e+00 0.0000000000e+00
5.7504250000e-02 0.0000000000e+00 0.0000000000e+00
5.8004200000e-02 0.0000000000e+00 0.0000000000e+00
5.8504150000e-02 0.0000000000e+00 0.0000000000e+00
5.9004100000e-02 0.0000000000e+00 0.0000000000e+00
5.9504050000e-02 0.0000000000e+00 0.0000000000e+00
6.0004000000e-02 0.0000000000e+00 0.0000000000e+00
6.0503950000e-02 0.0000000000e+00 0.0000000000e+00
6.1003900000e-02 0.0000000000e+00 0.0000000000e+00
6.1503850000e-02 0.0000000000e+00 0.0000000000e+00
6.2003800000e-02 0.0000000000e+00 0.0000000000e+00
6.2503750000e-02 0.0000000000e+00 0.0000000000e+00
6.3003700000e-02 0.0000000000e+00 0.0000000000e+00
6.3503650000e-02 0.0000000000e+00 0.0000000000e+00
6.4003600000e-02 0.0000000000e+00 0.0000000000e+00
6.4503550000e-02 0.0000000000e+00 0.0000000000e+00
6.5003500000e-02 0.0000000000e+00 0.0000000000e+00
6.5503450000e-02 0.0000000000e+00 0.0000000000e+00
6.6003400000e-02 0.0000000000e+00 0.0000000000e+00
6.6503350000e-02 0.0000000000e+00 0.0000000000e+00
6.7003300000e-02 0.0000000000e+00 0.0000000000e+00
6.7503250000e-02 0.0000000000e+00 0.0000000000e+00
6.8003200000e-02 0.0000000000e+00 0.0000000000e+00
6.8503150000e-02 0.0000000000e+00 0.0000000000e+00
6.9003100000e-02 0.0000000000e+00 0.0000000000e+00
6.9503050000e-02 0.0000000000e+00 0.0000000000e+00
7.0003000000e-02 0.0000000000e+00 0.0000000000e+00
7.0502950000e-02 0.0000000000e+00 0.0000000000e+00
7.1002900000e-02 0.0000000000e+00 0.0000000000e+00
7.1502850000e-02 0.0000000000e+00 0.0000000000e+00
7.2002800000e-02 0.0000000000e+00 0.0000000000e+00
7.2502750000e-02 0.0000000000e+00 0.0000000000e+00
7.3002700000e-02 0.0000000000e+00 0.0000000000e+00
7.3502650000e-02 0.0000000000e+00 0.0000000000e+00
7.4002600000e-02 0.0000000000e+00 0.0000000000e+00
7.4502550000e-02 0.0000000000e+00 0.0000000000e+00
7.5002500000e-02 0.0000000000e+00 0.0000000000e+00
7.5502450000e-02 0.0000000000e+00 0.0000000000e+00
7.6002400000e-02 0.0000000000e+00 0.0000000000e+00
7.6502350000e-02 0.0000000000e+00 0.0000000000e+00
7.7002300000e-02 0.0000000000e+00 0.0000000000e+00
7.7502250000e-02 0.0000000000e+00 0.0000000000e+00
7.8002200000e-02 0.0000000000e+00 0.0000000000e+00
7.8502150000e-02 0.0000000000e+00 0.0000000000e+00
7.9002100000e-02 0.0000000000e+00 0.0000000000e+00
7.9502050000e-02 0.0000000000e+00 0.0000000000e+00
8.0002000000e-02 0.0000000000e+00 0.0000000000e+00
8.0501950000e-02 0.0000000000e+00 0.0000000000e+00
8.1001900000e-02 0.0000000000e+00 0.0000000000e+00
8.1501850000e-02 0.0000000000e+00 0.0000000000e+00
8.2001800000e-02 0.0000000000e+00 0.0000000000e+00
8.2501750000e-02 0.0000000000e+00 0.0000000000e+00
8.3001700000e-02 0.0000000000e+00 0.0000000000e+00
8.3501650000e-02 0.0000000000e+00 0.0000000000e+00
8.4001600000e-02 0.0000000000e+00 0.0000000000e+00
8.4501550000e-02 0.0000000000e+00 0.0000000000e+00
8.5001500000e-02 0.0000000000e+00 0.0000000000e+00
8.5501450000e-02 0.0000000000e+00 0.0000000000e+00
8.6001400000e-02 0.0000000000e+00 0.0000000000e+00
8.6501350000e-02 0.0000000000e+00 0.0000000000e+00
8.7001300000e-02 0.0000000000e+00 0.0000000000e+00
8.7501250000e-02 0.0000000000e+00 0.0000000000e+00
8.8001200000e-02 0.0000000000e+00 0.0000000000e+00
8.8501150000e-02 0.0000000000e+00 0.0000000000e+00
8.9001100000e-02 0.0000000000e+00 0.0000000000e+00
8.9501050000e-02 0.0000000000e+00 0.0000000000e+00
9.0001000000e-02 0.0000000000e+00 0.0000000000e+00
9.0500950000e-02 0.0000000000e+00 0.0000000000e+00
9.1000900000e-02 0.0000000000e+00 0.0000000000e+00
9.1500850000e-02 0.0000000000e+00 0.0000000000e+00
9.2000800000e-02 0.0000000000e+00 0.0000000000e+00
9.2500750000e-02 0.0000000000e+00 0.0000000000e+00
9.3000700000e-02 0.0000000000e+00 0.0000000000e+00
9.3500650000e-02 0.0000000000e+00 0.0000000000e+00
9.4000600000e-02 0.0000000000e+00 0.0000000000e+00
9.4500550000e-02 0.0000000000e+00 0.0000000000e+00
9.5000500000e-02 0.0000000000e+00 0.0000000000e+00
[...]
</DataArray></Cells><PointData Vectors="Displacement"><DataArray type="Float64" Name="Displacement" NumberOfComponents="3" format="ascii">
0.0000000000e+00 0.0000000000e+00 0.0000000000e+00
-4.6439460403e-07 4.6586774332e-08 0.0000000000e+00
-9.2840713207e-07 1.5895381548e-07 0.0000000000e+00
-1.3943469617e-06 3.2767181014e-07 0.0000000000e+00
-1.8614715364e-06 5.5123073209e-07 0.0000000000e+00
-2.3295276100e-06 8.2756706370e-07 0.0000000000e+00
-2.7982979187e-06 1.1551515717e-06 0.0000000000e+00
-3.2676518343e-06 1.5327376255e-06 0.0000000000e+00
-3.7374970178e-06 1.9592819792e-06 0.0000000000e+00
-4.2077649290e-06 2.4338914889e-06 0.0000000000e+00
-4.6784030376e-06 2.9557878163e-06 0.0000000000e+00
-5.1493698436e-06 3.5242827565e-06 0.0000000000e+00
-5.6206317769e-06 4.1387606391e-06 0.0000000000e+00
-6.0921611653e-06 4.7986652970e-06 0.0000000000e+00
-6.5639348286e-06 5.5034901812e-06 0.0000000000e+00
-7.0359330856e-06 6.2527707004e-06 0.0000000000e+00
-7.5081390306e-06 7.0460781707e-06 0.0000000000e+00
-7.9805379949e-06 7.8830149598e-06 0.0000000000e+00
-8.4531171390e-06 8.7632105342e-06 0.0000000000e+00
-8.9258651361e-06 9.6863181988e-06 0.0000000000e+00
-9.3987719243e-06 1.0652012382e-05 0.0000000000e+00
-9.8718285096e-06 1.1659986350e-05 0.0000000000e+00
-1.0345026808e-05 1.2709950265e-05 0.0000000000e+00
-1.0818359516e-05 1.3801629524e-05 0.0000000000e+00
-1.1291820007e-05 1.4934763325e-05 0.0000000000e+00
-1.1765402239e-05 1.6109103424e-05 0.0000000000e+00
-1.2239100686e-05 1.7324413046e-05 0.0000000000e+00
-1.2712910273e-05 1.8580465933e-05 0.0000000000e+00
-1.3186826328e-05 1.9877045505e-05 0.0000000000e+00
-1.3660844530e-05 2.1213944105e-05 0.0000000000e+00
-1.4134960879e-05 2.2590962339e-05 0.0000000000e+00
-1.4609171658e-05 2.4007908483e-05 0.0000000000e+00
-1.5083473404e-05 2.5464597943e-05 0.0000000000e+00
-1.5557862887e-05 2.6960852776e-05 0.0000000000e+00
-1.6032337084e-05 2.8496501255e-05 0.0000000000e+00
-1.6506893161e-05 3.0071377476e-05 0.0000000000e+00
-1.6981528460e-05 3.1685320994e-05 0.0000000000e+00
-1.7456240475e-05 3.3338176502e-05 0.0000000000e+00
-1.7931026849e-05 3.5029793526e-05 0.0000000000e+00
-1.8405885355e-05 3.6760026155e-05 0.0000000000e+00
-1.8880813888e-05 3.8528732784e-05 0.0000000000e+00
-1.9355810457e-05 4.0335775885e-05 0.0000000000e+00
-1.9830873173e-05 4.2181021791e-05 0.0000000000e+00
-2.0306000245e-05 4.4064340495e-05 0.0000000000e+00
-2.0781189968e-05 4.5985605472e-05 0.0000000000e+00
-2.1256440724e-05 4.7944693501e-05 0.0000000000e+00
-2.1731750966e-05 4.9941484513e-05 0.0000000000e+00
-2.2207119224e-05 5.1975861440e-05 0.0000000000e+00
-2.2682544091e-05 5.4047710080e-05 0.0000000000e+00
-2.3158024225e-05 5.6156918968e-05 0.0000000000e+00
-2.3633558341e-05 5.8303379252e-05 0.0000000000e+00
-2.4109145213e-05 6.0486984583e-05 0.0000000000e+00
-2.4584783664e-05 6.2707631002e-05 0.0000000000e+00
-2.5060472565e-05 6.4965216846e-05 0.0000000000e+00
-2.5536210830e-05 6.7259642658e-05 0.0000000000e+00
-2.6011997420e-05 6.9590811098e-05 0.0000000000e+00
-2.6487831334e-05 7.1958626856e-05 0.0000000000e+00
-2.6963711610e-05 7.4362996578e-05 0.0000000000e+00
-2.7439637321e-05 7.6803828791e-05 0.0000000000e+00
-2.7915607574e-05 7.9281033834e-05 0.0000000000e+00
-2.8391621510e-05 8.1794523789e-05 0.0000000000e+00
-2.8867678298e-05 8.4344212426e-05 0.0000000000e+00
-2.9343777139e-05 8.6930015135e-05 0.0000000000e+00
-2.9819917258e-05 8.9551848875e-05 0.0000000000e+00
-3.0296097912e-05 9.2209632117e-05 0.0000000000e+00
-3.0772318380e-05 9.4903284789e-05 0.0000000000e+00
-3.1248577965e-05 9.7632728234e-05 0.0000000000e+00
-3.1724875990e-05 1.0039788516e-04 0.0000000000e+00
-3.2201211800e-05 1.0319867960e-04 0.0000000000e+00
-3.2677584763e-05 1.0603503688e-04 0.0000000000e+00
-3.3153994266e-05 1.0890688356e-04 0.0000000000e+00
-3.3630439715e-05 1.1181414739e-04 0.0000000000e+00
-3.4106920534e-05 1.1475675731e-04 0.0000000000e+00
-3.4583436163e-05 1.1773464338e-04 0.0000000000e+00
-3.5059986060e-05 1.2074773675e-04 0.0000000000e+00
-3.5536569693e-05 1.2379596964e-04 0.0000000000e+00
-3.6013186549e-05 1.2687927532e-04 0.0000000000e+00
-3.6489836130e-05 1.2999758808e-04 0.0000000000e+00
-3.6966517949e-05 1.3315084316e-04 0.0000000000e+00
-3.7443231536e-05 1.3633897678e-04 0.0000000000e+00
-3.7919976431e-05 1.3956192607e-04 0.0000000000e+00
-3.8396752191e-05 1.4281962907e-04 0.0000000000e+00
-3.8873558379e-05 1.4611202469e-04 0.0000000000e+00
-3.9350394574e-05 1.4943905270e-04 0.0000000000e+00
-3.9827260364e-05 1.5280065370e-04 0.0000000000e+00
-4.0304155355e-05 1.5619676910e-04 0.0000000000e+00
-4.0781079164e-05 1.5962734106e-04 0.0000000000e+00
-4.1258031408e-05 1.6309231253e-04 0.0000000000e+00
-4.1735011713e-05 1.6659162719e-04 0.0000000000e+00
-4.2212019715e-05 1.7012522947e-04 0.0000000000e+00
-4.2689055059e-05 1.7369306452e-04 0.0000000000e+00
-4.3166117396e-05 1.7729507818e-04 0.0000000000e+00
-4.3643206389e-05 1.8093121698e-04 0.0000000000e+00
-4.4120321708e-05 1.8460142813e-04 0.0000000000e+00
-4.4597463026e-05 1.8830565945e-04 0.0000000000e+00
-4.5074630028e-05 1.9204385946e-04 0.0000000000e+00
-4.5551822404e-05 1.9581597724e-04 0.0000000000e+00
-4.6029039851e-05 1.9962196254e-04 0.0000000000e+00
-4.6506282071e-05 2.0346176566e-04 0.0000000000e+00
-4.6983548776e-05 2.0733533752e-04 0.0000000000e+00
-4.7460839687e-05 2.1124262959e-04 0.0000000000e+00
-4.7938154530e-05 2.1518359388e-04 0.0000000000e+00
-4.8415493034e-05 2.1915818296e-04 0.0000000000e+00
-4.8892854936e-05 2.2316634993e-04 0.0000000000e+00
-4.9370239973e-05 2.2720804840e-04 0.0000000000e+00
-4.9847647888e-05 2.3128323252e-04 0.0000000000e+00
-5.0325078430e-05 2.3539185692e-04 0.0000000000e+00
-5.0802531355e-05 2.3953387676e-04 0.0000000000e+00
-5.1280006423e-05 2.4370924765e-04 0.0000000000e+00
-5.1757503402e-05 2.4791792568e-04 0.0000000000e+00
-5.2235022064e-05 2.5215986739e-04 0.0000000000e+00
-5.2712562189e-05 2.5643502980e-04 0.0000000000e+00
-5.3190123558e-05 2.6074337033e-04 0.0000000000e+00
-5.3667705953e-05 2.6508484684e-04 0.0000000000e+00
-5.4145309162e-05 2.6945941764e-04 0.0000000000e+00
-5.4622932972e-05 2.7386704144e-04 0.0000000000e+00
-5.5100577181e-05 2.7830767739e-04 0.0000000000e+00
-5.5578241584e-05 2.8278128501e-04 0.0000000000e+00
-5.6055926000e-05 2.8728782425e-04 0.0000000000e+00
-5.6533630257e-05 2.9182725539e-04 0.0000000000e+00
-5.7011354175e-05 2.9639953903e-04 0.0000000000e+00
-5.7489097563e-05 3.0100463618e-04 0.0000000000e+00
-5.7966860239e-05 3.0564250821e-04 0.0000000000e+00
-5.8444642024e-05 3.1031311684e-04 0.0000000000e+00
-5.8922442740e-05 3.1501642417e-04 0.0000000000e+00
-5.9400262209e-05 3.1975239261e-04 0.0000000000e+00
-5.9878100261e-05 3.2452098498e-04 0.0000000000e+00
-6.0355956727e-05 3.2932216438e-04 0.0000000000e+00
-6.0833831443e-05 3.3415589427e-04 0.0000000000e+00
-6.1311724253e-05 3.3902213844e-04 0.0000000000e+00
-6.1789634997e-05 3.4392086096e-04 0.0000000000e+00
-6.2267563518e-05 3.4885202625e-04 0.0000000000e+00
-6.2745509662e-05 3.5381559902e-04 0.0000000000e+00
-6.3223473281e-05 3.5881154429e-04 0.0000000000e+00
-6.3701454226e-05 3.6383982736e-04 0.0000000000e+00
-6.4179452347e-05 3.6890041385e-04 0.0000000000e+00
-6.4657467502e-05 3.7399326966e-04 0.0000000000e+00
-6.5135499549e-05 3.7911836098e-04 0.0000000000e+00
-6.5613548349e-05 3.8427565426e-04 0.0000000000e+00
-6.6091613761e-05 3.8946511626e-04 0.0000000000e+00
-6.6569695645e-05 3.9468671399e-04 0.0000000000e+00
-6.7047793869e-05 3.9994041475e-04 0.0000000000e+00
-6.7525908299e-05 4.0522618611e-04 0.0000000000e+00
-6.8004038805e-05 4.1054399588e-04 0.0000000000e+00
-6.8482185256e-05 4.1589381214e-04 0.0000000000e+00
-6.8960347522e-05 4.2127560324e-04 0.0000000000e+00
-6.9438525484e-05 4.2668933778e-04 0.0000000000e+00
-6.9916719020e-05 4.3213498458e-04 0.0000000000e+00
-7.0394928008e-05 4.3761251272e-04 0.0000000000e+00
-7.0873152324e-05 4.4312189151e-04 0.0000000000e+00
-7.1351391848e-05 4.4866309052e-04 0.0000000000e+00
-7.1829646456e-05 4.5423607956e-04 0.0000000000e+00
-7.2307916032e-05 4.5984082867e-04 0.0000000000e+00
-7.2786200478e-05 4.6547730813e-04 0.0000000000e+00
-7.3264499702e-05 4.7114548837e-04 0.0000000000e+00
-7.3742813598e-05 4.7684534004e-04 0.0000000000e+00
-7.4221142061e-05 4.8257683399e-04 0.0000000000e+00
-7.4699484984e-05 4.8833994130e-04 0.0000000000e+00
-7.5177842264e-05 4.9413463323e-04 0.0000000000e+00
-7.5656213792e-05 4.9996088127e-04 0.0000000000e+00
-7.6134599461e-05 5.0581865712e-04 0.0000000000e+00
-7.6612999166e-05 5.1170793271e-04 0.0000000000e+00
-7.7091412805e-05 5.1762868015e-04 0.0000000000e+00
-7.7569840273e-05 5.2358087176e-04 0.0000000000e+00
-7.8048281467e-05 5.2956448009e-04 0.0000000000e+00
-7.8526736292e-05 5.3557947786e-04 0.0000000000e+00
-7.9005204650e-05 5.4162583800e-04 0.0000000000e+00
-7.9483686443e-05 5.4770353363e-04 0.0000000000e+00
-7.9962181580e-05 5.5381253805e-04 0.0000000000e+00
-8.0440689980e-05 5.5995282476e-04 0.0000000000e+00
-8.0919211557e-05 5.6612436739e-04 0.0000000000e+00
-8.1397746218e-05 5.7232713976e-04 0.0000000000e+00
-8.1876293875e-05 5.7856111588e-04 0.0000000000e+00
-8.2354854437e-05 5.8482626994e-04 0.0000000000e+00
-8.2833427821e-05 5.9112257628e-04 0.0000000000e+00
-8.3312013940e-05 5.9745000943e-04 0.0000000000e+00
-8.3790612707e-05 6.0380854410e-04 0.0000000000e+00
-8.4269224039e-05 6.1019815515e-04 0.0000000000e+00
-8.4747847859e-05 6.1661881761e-04 0.0000000000e+00
-8.5226484086e-05 6.2307050666e-04 0.0000000000e+00
-8.5705132640e-05 6.2955319766e-04 0.0000000000e+00
-8.6183793446e-05 6.3606686610e-04 0.0000000000e+00
-8.6662466437e-05 6.4261148764e-04 0.0000000000e+00
-8.7141151544e-05 6.4918703803e-04 0.0000000000e+00
-8.7619848689e-05 6.5579349321e-04 0.0000000000e+00
-8.8098557790e-05 6.6243082925e-04 0.0000000000e+00
-8.8577278764e-05 6.6909902241e-04 0.0000000000e+00
-8.9056011538e-05 6.7579804909e-04 0.0000000000e+00
-8.9534756044e-05 6.8252788584e-04 0.0000000000e+00
-9.0013512218e-05 6.8928850934e-04 0.0000000000e+00
-9.0492279988e-05 6.9607989638e-04 0.0000000000e+00
-9.0971059280e-05 7.0290202393e-04 0.0000000000e+00
-9.1449850057e-05 7.0975486905e-04 0.0000000000e+00
-9.1928652015e-05 7.1663840908e-04 0.0000000000e+00
-9.2407465775e-05 7.2355262163e-04 0.0000000000e+00
-9.2886291384e-05 7.3049748157e-04 0.0000000000e+00
-9.3365115627e-05 7.3747297729e-04 0.0000000000e+00
-9.3844011607e-05 7.4447907514e-04 0.0000000000e+00
-9.4322806821e-05 7.5151562408e-04 0.0000000000e+00
-9.4801083089e-05 7.5858348079e-04 0.0000000000e+00
-9.5284715553e-05 7.6568063516e-04 0.0000000000e+00
0.0000000000e+00 -1.3048947698e-08 0.0000000000e+00
-4.6645518500e-07 3.3902793546e-08 0.0000000000e+00
-9.3192805729e-07 1.4628958194e-07 0.0000000000e+00
-1.3992560857e-06 3.1504799489e-07 0.0000000000e+00
-1.8677272038e-06 5.3862732736e-07 0.0000000000e+00
-2.3370817417e-06 8.1498108329e-07 0.0000000000e+00
-2.8071172462e-06 1.1425788828e-06 0.0000000000e+00
-3.2777076665e-06 1.5201760713e-06 0.0000000000e+00
-3.7487653479e-06 1.9467298513e-06 0.0000000000e+00
-4.2202249404e-06 2.4213475420e-06 0.0000000000e+00
-4.6920364681e-06 2.9432510746e-06 0.0000000000e+00
-5.1641604414e-06 3.5117524434e-06 0.0000000000e+00
-5.6365649300e-06 4.1262361214e-06 0.0000000000e+00
-6.1092236171e-06 4.7861460490e-06 0.0000000000e+00
-6.5821144610e-06 5.4909757601e-06 0.0000000000e+00
-7.0552187494e-06 6.2402607284e-06 0.0000000000e+00
-7.5285204104e-06 7.0335723219e-06 0.0000000000e+00
-8.0020054997e-06 7.8705129505e-06 0.0000000000e+00
-8.4756618124e-06 8.7507121151e-06 0.0000000000e+00
-8.9494785822e-06 9.6738231494e-06 0.0000000000e+00
-9.4234462455e-06 1.0639520506e-05 0.0000000000e+00
-9.8975562540e-06 1.1647497471e-05 0.0000000000e+00
-1.0371800925e-05 1.2697464225e-05 0.0000000000e+00
-1.0846173316e-05 1.3789146180e-05 0.0000000000e+00
-1.1320667131e-05 1.4922282546e-05 0.0000000000e+00
-1.1795276626e-05 1.6096625090e-05 0.0000000000e+00
-1.2269996551e-05 1.7311937048e-05 0.0000000000e+00
-1.2744822084e-05 1.8567992172e-05 0.0000000000e+00
-1.3219748781e-05 1.9864573887e-05 0.0000000000e+00
-1.3694772541e-05 2.1201474545e-05 0.0000000000e+00
-1.4169889559e-05 2.2578494759e-05 0.0000000000e+00
-1.4645096305e-05 2.3995442808e-05 0.0000000000e+00
-1.5120389487e-05 2.5452134103e-05 0.0000000000e+00
-1.5595766036e-05 2.6948390708e-05 0.0000000000e+00
-1.6071223080e-05 2.8484040899e-05 0.0000000000e+00
-1.6546757926e-05 3.0058918774e-05 0.0000000000e+00
-1.7022368046e-05 3.1672863894e-05 0.0000000000e+00
-1.7498051061e-05 3.3325720954e-05 0.0000000000e+00
-1.7973804731e-05 3.5017339483e-05 0.0000000000e+00
-1.8449626939e-05 3.6747573572e-05 0.0000000000e+00
-1.8925515686e-05 3.8516281618e-05 0.0000000000e+00
-1.9401469079e-05 4.0323326098e-05 0.0000000000e+00
-1.9877485324e-05 4.2168573344e-05 0.0000000000e+00
-2.0353562717e-05 4.4051893353e-05 0.0000000000e+00
-2.0829699641e-05 4.5973159600e-05 0.0000000000e+00
-2.1305894556e-05 4.7932248867e-05 0.0000000000e+00
-2.1782145994e-05 4.9929041085e-05 0.0000000000e+00
-2.2258452557e-05 5.1963419190e-05 0.0000000000e+00
-2.2734812908e-05 5.4035268979e-05 0.0000000000e+00
-2.3211225772e-05 5.6144478988e-05 0.0000000000e+00
-2.3687689929e-05 5.8290940369e-05 0.0000000000e+00
-2.4164204212e-05 6.0474546771e-05 0.0000000000e+00
-2.4640767504e-05 6.2695194237e-05 0.0000000000e+00
-2.5117378732e-05 6.4952781106e-05 0.0000000000e+00
-2.5594036865e-05 6.7247207922e-05 0.0000000000e+00
-2.6070740914e-05 6.9578377344e-05 0.0000000000e+00
-2.6547489929e-05 7.1946194064e-05 0.0000000000e+00
-2.7024282996e-05 7.4350564728e-05 0.0000000000e+00
-2.7501119233e-05 7.6791397865e-05 0.0000000000e+00
-2.7977997794e-05 7.9268603814e-05 0.0000000000e+00
-2.8454917859e-05 8.1782094658e-05 0.0000000000e+00
-2.8931878642e-05 8.4331784166e-05 0.0000000000e+00
-2.9408879381e-05 8.6917587731e-05 0.0000000000e+00
-2.9885919343e-05 8.9539422311e-05 0.0000000000e+00
-3.0362997818e-05 9.2197206377e-05 0.0000000000e+00
-3.0840114124e-05 9.4890859860e-05 0.0000000000e+00
-3.1317267596e-05 9.7620304101e-05 0.0000000000e+00
-3.1794457593e-05 1.0038546181e-04 0.0000000000e+00
-3.2271683493e-05 1.0318625702e-04 0.0000000000e+00
-3.2748944694e-05 1.0602261506e-04 0.0000000000e+00
-3.3226240614e-05 1.0889446248e-04 0.0000000000e+00
-3.3703570688e-05 1.1180172705e-04 0.0000000000e+00
-3.4180934368e-05 1.1474433769e-04 0.0000000000e+00
-3.4658331125e-05 1.1772222446e-04 0.0000000000e+00
-3.5135760442e-05 1.2073531853e-04 0.0000000000e+00
-3.5613221813e-05 1.2378355210e-04 0.0000000000e+00
-3.6090714752e-05 1.2686685847e-04 0.0000000000e+00
-3.6568238784e-05 1.2998517189e-04 0.0000000000e+00
-3.7045793449e-05 1.3313842763e-04 0.0000000000e+00
-3.7523378297e-05 1.3632656189e-04 0.0000000000e+00
-3.8000992894e-05 1.3954951182e-04 0.0000000000e+00
-3.8478636816e-05 1.4280721545e-04 0.0000000000e+00
-3.8956309651e-05 1.4609961170e-04 0.0000000000e+00
-3.9434010997e-05 1.4942664032e-04 0.0000000000e+00
-3.9911740463e-05 1.5278824192e-04 0.0000000000e+00
-4.0389497675e-05 1.5618435792e-04 0.0000000000e+00
-4.0867282268e-05 1.5961493046e-04 0.0000000000e+00
-4.1345093879e-05 1.6307990251e-04 0.0000000000e+00
-4.1822932153e-05 1.6657921774e-04 0.0000000000e+00
-4.2300796743e-05 1.7011282059e-04 0.0000000000e+00
-4.2778687312e-05 1.7368065619e-04 0.0000000000e+00
-4.3256603529e-05 1.7728267041e-04 0.0000000000e+00
-4.3734545074e-05 1.8091880976e-04 0.0000000000e+00
-4.4212511632e-05 1.8458902143e-04 0.0000000000e+00
-4.4690502894e-05 1.8829325329e-04 0.0000000000e+00
-4.5168518560e-05 1.9203145382e-04 0.0000000000e+00
-4.5646558334e-05 1.9580357212e-04 0.0000000000e+00
-4.6124621931e-05 1.9960955793e-04 0.0000000000e+00
-4.6602709065e-05 2.0344936156e-04 0.0000000000e+00
-4.7080819465e-05 2.0732293392e-04 0.0000000000e+00
-4.7558952863e-05 2.1123022648e-04 0.0000000000e+00
-4.8037109001e-05 2.1517119126e-04 0.0000000000e+00
-4.8515287621e-05 2.1914578082e-04 0.0000000000e+00
-4.8993488472e-05 2.2315394827e-04 0.0000000000e+00
-4.9471711306e-05 2.2719564721e-04 0.0000000000e+00
-4.9949955878e-05 2.3127083180e-04 0.0000000000e+00
-5.0428221948e-05 2.3537945667e-04 0.0000000000e+00
-5.0906509285e-05 2.3952147696e-04 0.0000000000e+00
-5.1384817663e-05 2.4369684830e-04 0.0000000000e+00
-5.1863146858e-05 2.4790552677e-04 0.0000000000e+00
-5.2341496657e-05 2.5214746894e-04 0.0000000000e+00
-5.2819866849e-05 2.5642263178e-04 0.0000000000e+00
-5.3298257225e-05 2.6073097274e-04 0.0000000000e+00
-5.3776667581e-05 2.6507244968e-04 0.0000000000e+00
-5.4255097711e-05 2.6944702091e-04 0.0000000000e+00
-5.4733547417e-05 2.7385464513e-04 0.0000000000e+00
-5.5212016505e-05 2.7829528149e-04 0.0000000000e+00
-5.5690504781e-05 2.8276888953e-04 0.0000000000e+00
-5.6169012071e-05 2.8727542918e-04 0.0000000000e+00
-5.6647538214e-05 2.9181486072e-04 0.0000000000e+00
-5.7126083038e-05 2.9638714477e-04 0.0000000000e+00
-5.7604646362e-05 3.0099224231e-04 0.0000000000e+00
-5.8083228012e-05 3.0563011474e-04 0.0000000000e+00
-5.8561827819e-05 3.1030072376e-04 0.0000000000e+00
-5.9040445613e-05 3.1500403147e-04 0.0000000000e+00
-5.9519081226e-05 3.1974000030e-04 0.0000000000e+00
-5.9997734495e-05 3.2450859304e-04 0.0000000000e+00
-6.0476405260e-05 3.2930977282e-04 0.0000000000e+00
-6.0955093367e-05 3.3414350309e-04 0.0000000000e+00
-6.1433798665e-05 3.3900974762e-04 0.0000000000e+00
-6.1912521003e-05 3.4390847051e-04 0.0000000000e+00
-6.2391260231e-05 3.4883963616e-04 0.0000000000e+00
-6.2870016205e-05 3.5380320929e-04 0.0000000000e+00
-6.3348788783e-05 3.5879915491e-04 0.0000000000e+00
-6.3827577823e-05 3.6382743834e-04 0.0000000000e+00
-6.4306383184e-05 3.6888802518e-04 0.0000000000e+00
-6.4785204728e-05 3.7398088134e-04 0.0000000000e+00
-6.5264042323e-05 3.7910597300e-04 0.0000000000e+00
-6.5742895837e-05 3.8426326663e-04 0.0000000000e+00
-6.6221765133e-05 3.8945272897e-04 0.0000000000e+00
-6.6700650082e-05 3.9467432703e-04 0.0000000000e+00
-6.7179550555e-05 3.9992802813e-04 0.0000000000e+00
-6.7658466427e-05 4.0521379982e-04 0.0000000000e+00
-6.8137397573e-05 4.1053160991e-04 0.0000000000e+00
-6.8616343870e-05 4.1588142650e-04 0.0000000000e+00
-6.9095305194e-05 4.2126321793e-04 0.0000000000e+00
-6.9574281431e-05 4.2667695279e-04 0.0000000000e+00
-7.0053272466e-05 4.3212259990e-04 0.0000000000e+00
-7.0532278182e-05 4.3760012836e-04 0.0000000000e+00
-7.1011298464e-05 4.4310950746e-04 0.0000000000e+00
-7.1490333194e-05 4.4865070678e-04 0.0000000000e+00
-7.1969382257e-05 4.5422369613e-04 0.0000000000e+00
-7.2448445541e-05 4.5982844554e-04 0.0000000000e+00
-7.2927522955e-05 4.6546492531e-04 0.0000000000e+00
-7.3406614411e-05 4.7113310585e-04 0.0000000000e+00
-7.3885719807e-05 4.7683295782e-04 0.0000000000e+00
-7.4364839043e-05 4.8256445207e-04 0.0000000000e+00
-7.4843972020e-05 4.8832755967e-04 0.0000000000e+00
-7.5323118637e-05 4.9412225189e-04 0.0000000000e+00
-7.5802278792e-05 4.9994850023e-04 0.0000000000e+00
-7.6281452384e-05 5.0580627637e-04 0.0000000000e+00
-7.6760639311e-05 5.1169555225e-04 0.0000000000e+00
-7.7239839479e-05 5.1761629997e-04 0.0000000000e+00
-7.7719052786e-05 5.2356849187e-04 0.0000000000e+00
-7.8198279135e-05 5.2955210047e-04 0.0000000000e+00
-7.8677518435e-05 5.3556709852e-04 0.0000000000e+00
-7.9156770594e-05 5.4161345894e-04 0.0000000000e+00
-7.9636035519e-05 5.4769115484e-04 0.0000000000e+00
-8.0115313121e-05 5.5380015954e-04 0.0000000000e+00
-8.0594603326e-05 5.5994044652e-04 0.0000000000e+00
-8.1073906052e-05 5.6611198942e-04 0.0000000000e+00
-8.1553221209e-05 5.7231476206e-04 0.0000000000e+00
-8.2032548714e-05 5.7854873844e-04 0.0000000000e+00
-8.2511888482e-05 5.8481389276e-04 0.0000000000e+00
-8.2991240431e-05 5.9111019936e-04 0.0000000000e+00
-8.3470604482e-05 5.9743763278e-04 0.0000000000e+00
-8.3949980550e-05 6.0379616770e-04 0.0000000000e+00
-8.4429368557e-05 6.1018577901e-04 0.0000000000e+00
-8.4908768429e-05 6.1660644172e-04 0.0000000000e+00
-8.5388180089e-05 6.2305813103e-04 0.0000000000e+00